# vtk DataFile Version 3.0
vtk output
ASCII
DATASET RECTILINEAR_GRID
FIELD FieldData 2
base_index 1 3 int
0 0 0 
avtOriginalBounds 1 6 double
-10 10 -10 10 -10 10 
DIMENSIONS 50 50 50
X_COORDINATES 50 float
-10 -9.59184 -9.18367 -8.77551 -8.36735 -7.95918 -7.55102 -7.14286 -6.73469 
-6.32653 -5.91837 -5.5102 -5.10204 -4.69388 -4.28571 -3.87755 -3.46939 -3.06122 
-2.65306 -2.2449 -1.83673 -1.42857 -1.02041 -0.612245 -0.204082 0.204082 0.612245 
1.02041 1.42857 1.83673 2.2449 2.65306 3.06122 3.46939 3.87755 4.28571 
4.69388 5.10204 5.5102 5.91837 6.32653 6.73469 7.14286 7.55102 7.95918 
8.36735 8.77551 9.18367 9.59184 10 
Y_COORDINATES 50 float
-10 -9.59184 -9.18367 -8.77551 -8.36735 -7.95918 -7.55102 -7.14286 -6.73469 
-6.32653 -5.91837 -5.5102 -5.10204 -4.69388 -4.28571 -3.87755 -3.46939 -3.06122 
-2.65306 -2.2449 -1.83673 -1.42857 -1.02041 -0.612245 -0.204082 0.204082 0.612245 
1.02041 1.42857 1.83673 2.2449 2.65306 3.06122 3.46939 3.87755 4.28571 
4.69388 5.10204 5.5102 5.91837 6.32653 6.73469 7.14286 7.55102 7.95918 
8.36735 8.77551 9.18367 9.59184 10 
Z_COORDINATES 50 float
-10 -9.59184 -9.18367 -8.77551 -8.36735 -7.95918 -7.55102 -7.14286 -6.73469 
-6.32653 -5.91837 -5.5102 -5.10204 -4.69388 -4.28571 -3.87755 -3.46939 -3.06122 
-2.65306 -2.2449 -1.83673 -1.42857 -1.02041 -0.612245 -0.204082 0.204082 0.612245 
1.02041 1.42857 1.83673 2.2449 2.65306 3.06122 3.46939 3.87755 4.28571 
4.69388 5.10204 5.5102 5.91837 6.32653 6.73469 7.14286 7.55102 7.95918 
8.36735 8.77551 9.18367 9.59184 10 
POINT_DATA 125000
SCALARS unnamed1 float
LOOKUP_TABLE default
0.564453 0.745117 0.405273 0.71875 0.836914 0.125977 0.587891 0.625977 0.349609 
0.407227 0.763672 0.339844 0.326172 0.675781 0.712891 0.230469 0.545898 0.989258 
0.34375 0.873047 0.134766 0.481445 0.557617 0.697266 0.291992 0.708008 0.376953 
0.602539 0.27832 0.94043 0.628906 0.0185547 0.513672 0.162109 0.603516 0.515625 
0.174805 0.308594 0.675781 0.826172 0.650391 0.125 0.0771484 0.344727 0.755859 
0.126953 0.272461 0.238281 0.197266 0.615234 0.681641 0.128906 0.220703 0.964844 
0.946289 0.349609 0.0771484 0.411133 0.506836 0.386719 0.638672 0.0527344 0.704102 
0.147461 0.214844 0.109375 0.776367 0.514648 0.304688 0.639648 0.745117 0.891602 
0.921875 0.53125 0.928711 0.655273 0.890625 0.595703 0.855469 0.125977 0.0244141 
0.266602 0.691406 0.548828 0.0693359 0.00390625 0.733398 0.245117 0.87207 0.139648 
0.236328 0.69043 0.701172 0.948242 0.493164 0.470703 0.46875 0.97168 0.293945 
0.928711 0.826172 0.71875 0.842773 0.136719 0.356445 0.851562 0.206055 0.3125 
0.0302734 0.708008 0.738281 0.0478516 0.899414 0.685547 0.363281 0.126953 0.130859 
0.936523 0.674805 0.676758 0.756836 0.310547 0.439453 0.830078 0.135742 0.123047 
0.109375 0.912109 0.251953 0.319336 0.317383 0.90625 0.78418 0.0537109 0.772461 
0.623047 0.258789 0.287109 0.280273 0.810547 0.944336 0.932617 0.481445 0.743164 
0.442383 0.973633 0.901367 0.793945 0.00195312 0.375977 0.264648 0.615234 0.0615234 
0.291992 0.551758 0.890625 0.124023 0.337891 0.795898 0.0195312 0.308594 0.807617 
0.0263672 0.0830078 0.0507812 0.634766 0.692383 0.838867 0.078125 0.316406 0.889648 
0.904297 0.824219 0.80957 0.384766 0.155273 0.896484 0.129883 0.0205078 0.375 
0.393555 0.748047 0.724609 0.188477 0.0712891 0.794922 0.645508 0.135742 0.490234 
0 0.785156 0.719727 0.425781 0.237305 0.375 0.0263672 0.75293 0.96582 
0.732422 0.543945 0.0410156 0.973633 0.660156 0.618164 0.342773 0.462891 0.0146484 
0.511719 0.975586 0.926758 0.179688 0.814453 0.423828 0.505859 0.0791016 0.192383 
0.3125 0.767578 0.371094 0.37207 0.663086 0.702148 0.987305 0.776367 0.0810547 
0.274414 0.591797 0.170898 0.496094 0.225586 0.787109 0.557617 0.380859 0.754883 
0.416016 0.592773 0.416992 0.289062 0.90625 0.800781 0.176758 0.166992 0.87793 
0.791016 0.917969 0.109375 0.361328 0.412109 0.350586 0.272461 0.944336 0.750977 
0.335938 0.34668 0.817383 0.181641 0.711914 0.873047 0.455078 0.966797 0.623047 
0.359375 0.276367 0.69043 0.480469 0.945312 0.635742 0.0595703 0.734375 0.726562 
0.466797 0.975586 0.354492 0.658203 0.351562 0.537109 0.419922 0.871094 0.152344 
0.0410156 0.78125 0.870117 0.776367 0.418945 0.370117 0.348633 0.723633 0.0839844 
0.813477 0.226562 0.935547 0.62793 0.147461 0.00585938 0.463867 0.880859 0.827148 
0.125 0.237305 0.0996094 0.834961 0.947266 0.0146484 0.407227 0.18457 0.491211 
0.0791016 0.196289 0.469727 0.161133 0.767578 0.310547 0.583984 0.138672 0.0654297 
0.735352 0.205078 0.113281 0.188477 0.0517578 0.53125 0.75 0.0947266 0.732422 
0.658203 0.639648 0.696289 0.512695 0.25293 0.826172 0.791016 0.935547 0.441406 
0.93457 0.34375 0.931641 0.911133 0.27832 0.0253906 0.540039 0.675781 0.880859 
0.00390625 0.611328 0.34082 0.611328 0.941406 0.279297 0.941406 0.15332 0.667969 
0.745117 0.253906 0.291016 0.219727 0.376953 0.731445 0.55957 0.517578 0.416992 
0.0224609 0.182617 0.311523 0.743164 0.109375 0.672852 0.0576172 0.484375 0.178711 
0.470703 0.358398 0.491211 0.762695 0.333984 0.8125 0.18457 0.791992 0.476562 
0.287109 0.564453 0.0361328 0.493164 0.915039 0.993164 0.274414 0.09375 0.755859 
0.792969 0.498047 0.449219 0.863281 0.806641 0.233398 0.171875 0.393555 0.696289 
0.186523 0.0429688 0.749023 0.0673828 0.994141 0.588867 0.177734 0.0390625 0.475586 
0.264648 0.46875 0.401367 0.630859 0.396484 0.75293 0.776367 0.676758 0.875977 
0.445312 0.457031 0.863281 0.619141 0.472656 0.273438 0.919922 0.645508 0.749023 
0.998047 0.870117 0.28418 0.78418 0.296875 0.495117 0.113281 0.371094 0.693359 
0.504883 0.59668 0.396484 0.0546875 0.498047 0.0498047 0.943359 0.458984 0.0175781 
0.0664062 0.200195 0.304688 0.208008 0.442383 0.169922 0.162109 0.449219 0.796875 
0.683594 0.103516 0.135742 0.518555 0.87207 0.0703125 0.421875 0.589844 0.259766 
0.412109 0.314453 0.390625 0.71875 0.613281 0.0966797 0.332031 0.725586 0.478516 
0.279297 0.714844 0.363281 0.368164 0.0449219 0.695312 0.911133 0.538086 0.932617 
0.342773 0.598633 0.314453 0.431641 0.915039 0.895508 0.657227 0.320312 0.413086 
0.513672 0.931641 0.388672 0.177734 0.858398 0.327148 0.499023 0.0507812 0.203125 
0.750977 0.601562 0.428711 0.69043 0.563477 0.689453 0.0253906 0.143555 0.405273 
0.994141 0.543945 0.213867 0.00488281 0.670898 0.660156 0.729492 0.745117 0.538086 
0.250977 0.124023 0.140625 0.758789 0.212891 0.511719 0.275391 0.888672 0.496094 
0.883789 0.746094 0.0771484 0.0302734 0.134766 0.262695 0.986328 0.517578 0.703125 
0.272461 0.996094 0.481445 0.97168 0.0839844 0.984375 0.298828 0.195312 0.932617 
0.335938 0.120117 0.192383 0.265625 0.46582 0.65332 0.905273 0.0664062 0.267578 
0.375 0.738281 0.607422 0.155273 0.722656 0.905273 0.991211 0.898438 0.543945 
0.501953 0.885742 0.124023 0.0224609 0.637695 0.59668 0.168945 0.647461 0.400391 
0.6875 0.649414 0.983398 0.233398 0.0800781 0.582031 0.577148 0.456055 0.939453 
0.789062 0.955078 0.191406 0.570312 0.669922 0.484375 0.644531 0.401367 0.108398 
0.198242 0.339844 0.782227 0.956055 0.27832 0.0537109 0.00976562 0.580078 0.87207 
0.0673828 0.337891 0.757812 0.367188 0.725586 0.143555 0.776367 0.0761719 0.152344 
0.50293 0.101562 0.443359 0.0869141 0.257812 0.941406 0.862305 0.509766 0.883789 
0.405273 0.323242 0.152344 0.678711 0.207031 0.626953 0.874023 0.571289 0.482422 
0.248047 0.836914 0 0.240234 0.368164 0.859375 0.946289 0.300781 0.392578 
0.199219 0.172852 0.487305 0.0527344 0.474609 0.84082 0.933594 0.712891 0.254883 
0.598633 0.681641 0.483398 0.260742 0.0234375 0.0712891 0.603516 0.125 0.244141 
0.297852 0.0283203 0.523438 0.943359 0.0712891 0.199219 0.368164 0.155273 0.475586 
0.56543 0.888672 0.53418 0.623047 0.00292969 0.407227 0.348633 0.504883 0.271484 
0.958984 0.266602 0.0634766 0.0693359 0.350586 0.131836 0.8125 0.359375 0.205078 
0.490234 0.275391 0.395508 0.121094 0.220703 0.647461 0.999023 0.897461 0.306641 
0.915039 0.652344 0.0917969 0.167969 0.65918 0.996094 0.630859 0.282227 0.647461 
0.735352 0.234375 0.320312 0.90625 0.794922 0.450195 0.868164 0.246094 0.0800781 
0.368164 0.243164 0.195312 0.126953 0.341797 0.139648 0.767578 0.37207 0.183594 
0.00195312 0.861328 0.927734 0.766602 0.0205078 0.555664 0.917969 0.313477 0.763672 
0.763672 0.0390625 0.188477 0.994141 0.373047 0.886719 0.401367 0.675781 0.307617 
0.742188 0.912109 0.0185547 0.862305 0.725586 0.119141 0.574219 0.770508 0.0410156 
0.0371094 0.93457 0.303711 0.501953 0.734375 0.624023 0.811523 0.244141 0.604492 
0.770508 0.233398 0.393555 0.134766 0.50293 0.461914 0.685547 0.322266 0.801758 
0.839844 0.270508 0.882812 0.21582 0.888672 0.433594 0.84082 0.0771484 0.141602 
0.435547 0.791016 0.886719 0.230469 0.141602 0.015625 0.991211 0.369141 0.373047 
0.287109 0.314453 0.875977 0.239258 0.828125 0.387695 0.561523 0.0292969 0.579102 
0.771484 0.772461 0.266602 0.139648 0.786133 0.996094 0.158203 0.262695 0.500977 
0.234375 0.180664 0.509766 0.488281 0.660156 0.0214844 0.496094 0.955078 0.325195 
0.624023 0.204102 0.650391 0.966797 0.333984 0.09375 0.483398 0.729492 0.605469 
0.183594 0.688477 0.474609 0.235352 0.756836 0.911133 0.110352 0.813477 0.853516 
0.56543 0.397461 0.0224609 0.462891 0.0507812 0.348633 0.119141 0.270508 0.955078 
0.973633 0.579102 0.37207 0.990234 0.381836 0.826172 0.142578 0.820312 0.801758 
0.935547 0.621094 0.0761719 0.620117 0.453125 0.286133 0.764648 0.00195312 0.692383 
0.868164 0.385742 0.344727 0.478516 0.735352 0.417969 0.738281 0.558594 0.664062 
0.000976562 0.987305 0.53125 0.77832 0.902344 0.385742 0.591797 0.46582 0.283203 
0.407227 0.117188 0.566406 0.0634766 0.799805 0.310547 0.589844 0.914062 0.834961 
0.894531 0.668945 0.0566406 0.00585938 0.242188 0.875977 0.273438 0.442383 0.541016 
0.837891 0.695312 0.532227 0.963867 0.882812 0.417969 0.850586 0.449219 0.55957 
0.933594 0.414062 0.600586 0.639648 0.833008 0.701172 0.731445 0.791992 0.113281 
0.522461 0.794922 0.621094 0.0400391 0.411133 0.339844 0.894531 0.993164 0.211914 
0.81543 0.00585938 0.569336 0.859375 0.131836 0.375977 0.299805 0.299805 0.644531 
0.770508 0.0498047 0.15332 0.575195 0.317383 0.77832 0.739258 0.472656 0.241211 
0.37793 0.0546875 0.976562 0.583008 0.666016 0.912109 0.109375 0.643555 0.314453 
0.0576172 0.123047 0.40918 0.367188 0.249023 0.797852 0.71875 0.421875 0.402344 
0.50293 0.902344 0.574219 0.628906 0.817383 0.583008 0.405273 0.0888672 0.0605469 
0.823242 0.00390625 0.460938 0.926758 0.195312 0.341797 0.806641 0.564453 0.738281 
0.558594 0.555664 0.573242 0.99707 0.484375 0.166992 0.0351562 0.328125 0.359375 
0.49707 0.116211 0.762695 0.774414 0.834961 0.0253906 0.758789 0.366211 0.669922 
0.792969 0.594727 0.176758 0.875 0.773438 0.0566406 0.959961 0.0546875 0.0566406 
0.751953 0.831055 0.265625 0.769531 0.476562 0.322266 0.348633 0.320312 0.577148 
0.648438 0.222656 0.462891 0.748047 0.0664062 0.922852 0.162109 0.786133 0.839844 
0.664062 0.617188 0.334961 0.188477 0.00585938 0.80957 0.558594 0.913086 0.501953 
0.617188 0.59375 0.0556641 0.759766 0.864258 0.0117188 0.610352 0.295898 0.991211 
0.0615234 0.943359 0.62207 0.587891 0.400391 0.930664 0.300781 0.402344 0.762695 
0.09375 0.40625 0.304688 0.304688 0.446289 0.249023 0.00585938 0.52832 0.124023 
0.444336 0.231445 0.208984 0.720703 0.205078 0.0390625 0.890625 0.0878906 0.526367 
0.318359 0.795898 0.541992 0.364258 0.165039 0.0332031 0.950195 0.425781 0.425781 
0.671875 0.165039 0.368164 0.816406 0.0400391 0.668945 0.850586 0.261719 0.140625 
0.461914 0.99707 0.989258 0.775391 0.102539 0.0576172 0.24707 0.400391 0.829102 
0.131836 0.849609 0.328125 0.458984 0.101562 0.389648 0.18457 0.912109 0.296875 
0.835938 0.189453 0.125 0.231445 0.125977 0.950195 0.149414 0.834961 0.210938 
0.104492 0.15625 0.263672 0.334961 0.549805 0.807617 0.763672 0.171875 0.800781 
0.128906 0.289062 0.379883 0.391602 0.682617 0.726562 0.396484 0.430664 0.913086 
0.418945 0.900391 0.514648 0.282227 0.291016 0.900391 0.640625 0.65918 0.857422 
0.890625 0.669922 0.928711 0.900391 0.568359 0.767578 0.683594 0.0820312 0.142578 
0.805664 0.0957031 0.139648 0.166992 0.910156 0.820312 0.801758 0.557617 0.56543 
0.0224609 0.374023 0.267578 0.237305 0.119141 0.978516 0.386719 0.125 0.953125 
0.311523 0.143555 0.211914 0.707031 0.0410156 0.847656 0.75 0.862305 0.291992 
0.400391 0.304688 0.290039 0.359375 0.500977 0.686523 0.685547 0.951172 0.491211 
0.501953 0.329102 0.863281 0.857422 0.750977 0.594727 0.530273 0.332031 0.171875 
0.594727 0.428711 0.269531 0.758789 0.580078 0.0849609 0.897461 0.498047 0.313477 
0.59668 0.432617 0.0693359 0.357422 0.516602 0.263672 0.0341797 0.268555 0.393555 
0.105469 0.896484 0.262695 0.0439453 0.733398 0.577148 0.321289 0.746094 0.977539 
0.295898 0.628906 0.443359 0.0576172 0.767578 0.368164 0.576172 0.753906 0.416992 
0.503906 0.661133 0.40332 0.185547 0.426758 0.40332 0.750977 0.228516 0.834961 
0.610352 0.441406 0.371094 0.912109 0.678711 0.408203 0.447266 0.357422 0.364258 
0.227539 0.227539 0.923828 0.794922 0.426758 0.814453 0.793945 0.388672 0.249023 
0.173828 0.771484 0.456055 0.707031 0.806641 0.105469 0.0791016 0.242188 0.259766 
0.253906 0.131836 0.349609 0.436523 0.0644531 0.99707 0.338867 0.501953 0.0732422 
0.619141 0.867188 0.192383 0.957031 0.392578 0.93457 0.0976562 0.0537109 0.485352 
0.551758 0.65332 0.161133 0.455078 0.600586 0.491211 0.984375 0.647461 0.365234 
0.467773 0.589844 0.87207 0.947266 0.697266 0.740234 0.456055 0.960938 0 
0.250977 0.361328 0.438477 0.74707 0.969727 0.241211 0.369141 0.724609 0.53125 
0.668945 0.0654297 0.113281 0.428711 0.0927734 0.892578 0.202148 0.1875 0.84082 
0.0332031 0.501953 0.329102 0.149414 0.614258 0.915039 0.495117 0.564453 0.944336 
0.577148 0.910156 0.273438 0.749023 0.299805 0.441406 0.757812 0.307617 0.477539 
0.0966797 0.554688 0.209961 0.244141 0.591797 0.232422 0.0449219 0.685547 0.293945 
0.0488281 0.282227 0.0869141 0.0859375 0.80957 0.271484 0.992188 0.712891 0.814453 
0.950195 0.793945 0.407227 0.0839844 0.969727 0.0898438 0.706055 0.112305 0.526367 
0.0517578 0.533203 0.443359 0.99707 0.901367 0.268555 0.261719 0.28418 0.314453 
0.0400391 0.628906 0.90332 0.993164 0.386719 0.0302734 0.139648 0.40918 0.961914 
0.213867 0.151367 0.0986328 0.845703 0.879883 0.231445 0.853516 0.986328 0.28125 
0.84375 0.192383 0.567383 0.723633 0.47168 0.464844 0.982422 0.366211 0.208008 
0.878906 0.639648 0.850586 0.72168 0.291016 0.140625 0.991211 0.74707 0.322266 
0.931641 0.511719 0.897461 0.523438 0.748047 0.764648 0.498047 0.87793 0.550781 
0.931641 0.724609 0.339844 0.530273 0.261719 0.897461 0.186523 0.141602 0.59082 
0.150391 0.116211 0.617188 0.210938 0.0341797 0.702148 0.474609 0.792969 0.25 
0.347656 0.652344 0.363281 0.855469 0.255859 0.760742 0.290039 0.610352 0.429688 
0.129883 0.899414 0.982422 0.606445 0.193359 0.62207 0.280273 0.170898 0.719727 
0.865234 0.165039 0.816406 0.942383 0.761719 0.339844 0.720703 0.87793 0.661133 
0.410156 0.96875 0.363281 0.788086 0.117188 0.736328 0.642578 0.0234375 0.395508 
0.893555 0.672852 0.308594 0.240234 0.530273 0.785156 0.121094 0.978516 0.68457 
0.56543 0.78418 0.589844 0.678711 0.118164 0.27832 0.927734 0.357422 0.0664062 
0.324219 0.600586 0.689453 0.893555 0.241211 0.707031 0.0917969 0.285156 0.0761719 
0.260742 0.96582 0.924805 0.835938 0.608398 0.404297 0.283203 0.133789 0.898438 
0.0302734 0.711914 0.696289 0.0712891 0.225586 0.0380859 0.931641 0.848633 0.442383 
0.552734 0.4375 0.414062 0.84668 0.608398 0.915039 0.936523 0.888672 0.230469 
0.969727 0.308594 0.231445 0.158203 0.240234 0.256836 0.629883 0.726562 0.473633 
0.0605469 0.413086 0.799805 0.305664 0.791016 0.580078 0.717773 0.956055 0.867188 
0.748047 0.983398 0.44043 0.436523 0.887695 0.569336 0.0742188 0.283203 0.0908203 
0.415039 0.822266 0.586914 0.222656 0.759766 0.397461 0.667969 0.177734 0.539062 
0.360352 0.816406 0.015625 0.47168 0.578125 0.0742188 0.15625 0.419922 0.28418 
0.0605469 0.194336 0.262695 0.313477 0.357422 0.861328 0.0292969 0.708008 0.131836 
0.90918 0.384766 0.710938 0.179688 0.777344 0.644531 0.200195 0.879883 0.892578 
0.211914 0.248047 0.217773 0.0439453 0.811523 0.634766 0.785156 0.737305 0.838867 
0.572266 0.177734 0.644531 0.287109 0.87207 0.248047 0.169922 0.358398 0.957031 
0.919922 0.325195 0.0605469 0.459961 0.975586 0.179688 0.59375 0.675781 0.401367 
0.0595703 0.827148 0.27832 0.144531 0.811523 0.0419922 0.456055 0.412109 0.384766 
0.118164 0.114258 0.250977 0.678711 0.56543 0.93457 0.804688 0.165039 0.487305 
0.255859 0.873047 0.918945 0.25 0.875977 0.361328 0.628906 0.201172 0.801758 
0.0234375 0.915039 0.367188 0.924805 0.930664 0.950195 0.583984 0.730469 0.133789 
0.427734 0.612305 0.0507812 0.15625 0.463867 0.725586 0.492188 0.0380859 0.910156 
0.294922 0.601562 0.00683594 0.311523 0.601562 0.768555 0.457031 0.0595703 0.385742 
0.0419922 0.768555 0.575195 0.700195 0.112305 0.423828 0.496094 0.47168 0.158203 
0.459961 0.167969 0.102539 0.0703125 0.929688 0.576172 0.286133 0.774414 0.793945 
0.732422 0.199219 0.883789 0.25293 0.754883 0.208008 0.354492 0.342773 0.936523 
0.514648 0.157227 0.676758 0.556641 0.0908203 0.624023 0.597656 0.424805 0.779297 
0.693359 0.841797 0.770508 0.132812 0.0273438 0.229492 0.938477 0.124023 0.876953 
0.833984 0.325195 0.825195 0.0292969 0.318359 0.142578 0.265625 0.942383 0.0351562 
0.0830078 0.637695 0.683594 0.334961 0.433594 0.720703 0.220703 0.624023 0.352539 
0.740234 0.930664 0.561523 0.842773 0.436523 0.366211 0.232422 0.911133 0.814453 
0.154297 0.121094 0.182617 0.285156 0.0332031 0.111328 0.22168 0.981445 0.00292969 
0.975586 0.452148 0.554688 0.765625 0.899414 0.464844 0.335938 0.736328 0.901367 
0.612305 0.154297 0.119141 0.552734 0.696289 0.921875 0.199219 0.772461 0.563477 
0.839844 0.585938 0.19043 0.133789 0.829102 0.50293 0.654297 0.989258 0.19043 
0.760742 0.783203 0.790039 0.992188 0.572266 0.863281 0.139648 0.458008 0.642578 
0.56543 0.771484 0.733398 0.392578 0.821289 0.485352 0.507812 0.0429688 0.854492 
0.235352 0.755859 0.331055 0.197266 0.579102 0.795898 0.178711 0.481445 0.512695 
0.830078 0.793945 0.0664062 0.704102 0.80957 0.0351562 0.375 0.830078 0.818359 
0.371094 0.40332 0.987305 0.0644531 0.0283203 0.410156 0.803711 0.183594 0.211914 
0.899414 0.599609 0.910156 0.941406 0.266602 0.942383 0.575195 0.894531 0.111328 
0.360352 0.0654297 0.328125 0.322266 0.480469 0.473633 0.844727 0.55957 0.664062 
0.943359 0.232422 0.606445 0.955078 0.854492 0.411133 0.453125 0.373047 0.9375 
0.464844 0.316406 0.445312 0.576172 0.941406 0.375977 0.3125 0.423828 0.0664062 
0.208008 0.185547 0.798828 0.30957 0.286133 0.775391 0.948242 0.0566406 0.573242 
0.172852 0.898438 0.148438 0.883789 0.274414 0.862305 0.463867 0.266602 0.454102 
0.939453 0.149414 0.883789 0.953125 0.75 0.892578 0.713867 0.208984 0.519531 
0.290039 0.952148 0.696289 0.359375 0.870117 0.441406 0.147461 0.59668 0.902344 
0.833008 0.664062 0.446289 0.0136719 0.0556641 0.964844 0.398438 0.119141 0.757812 
0.744141 0.259766 0.730469 0.173828 0.355469 0.381836 0.910156 0.480469 0.170898 
0.000976562 0.711914 0.725586 0.835938 0.610352 0.769531 0.0742188 0.756836 0.991211 
0.361328 0.823242 0.298828 0.916016 0.136719 0.264648 0.567383 0.160156 0.49707 
0.824219 0.0527344 0.71582 0.953125 0.775391 0.448242 0.947266 0.445312 0.21582 
0.206055 0.900391 0.199219 0.538086 0.634766 0.0302734 0.185547 0.841797 0.908203 
0.120117 0.256836 0.253906 0.125977 0.0175781 0.404297 0.807617 0.883789 0.445312 
0.777344 0.944336 0.373047 0.662109 0.209961 0.337891 0.506836 0.886719 0.913086 
0.686523 0.245117 0.629883 0.951172 0.462891 0.658203 0.351562 0.662109 0.263672 
0.535156 0.65332 0.792969 0.290039 0.948242 0.71875 0.376953 0.868164 0.00976562 
0.661133 0.568359 0.74707 0.447266 0.407227 0.423828 0.683594 0.982422 0.572266 
0.956055 0.319336 0.706055 0.648438 0.283203 0.170898 0.0712891 0.993164 0.0458984 
0.917969 0.320312 0.844727 0.0761719 0.827148 0.414062 0.802734 0.319336 0.279297 
0.449219 0.505859 0.395508 0.741211 0.259766 0.887695 0.683594 0.776367 0.84082 
0.850586 0.704102 0.711914 0.216797 0.383789 0.686523 0.289062 0.693359 0.277344 
0.171875 0.291992 0.719727 0.956055 0.771484 0.617188 0.710938 0.0810547 0.332031 
0.964844 0.566406 0.501953 0.453125 0.53125 0.360352 0.331055 0.428711 0.134766 
0.597656 0.649414 0.0693359 0.414062 0.537109 0.22168 0.836914 0.124023 0.736328 
0.862305 0.760742 0.164062 0.287109 0.550781 0.188477 0.693359 0.554688 0.741211 
0.680664 0.743164 0.551758 0.814453 0.59375 0.830078 0.549805 0.885742 0.246094 
0.31543 0.640625 0.326172 0.383789 0.579102 0.901367 0.515625 0.610352 0.553711 
0.905273 0.861328 0.692383 0.37207 0.991211 0.514648 0.396484 0.191406 0.131836 
0.198242 0.573242 0.0810547 0.921875 0.135742 0.619141 0.688477 0.419922 0.333008 
0.207031 0.916016 0.981445 0.825195 0.544922 0.762695 0.503906 0.328125 0.00878906 
0.788086 0.797852 0.364258 0.597656 0.43457 0.849609 0.728516 0 0.839844 
0.351562 0.416016 0.408203 0.355469 0.173828 0.255859 0.507812 0.246094 0.486328 
0.821289 0.216797 0.0292969 0.916992 0.294922 0.661133 0.681641 0.121094 0.893555 
0.621094 0.194336 0.282227 0.135742 0.53418 0.939453 0.318359 0.84668 0.325195 
0.282227 0.0615234 0.450195 0.0693359 0.59668 0.12793 0.998047 0.745117 0.828125 
0.0664062 0.676758 0.103516 0.457031 0.795898 0.927734 0.456055 0.943359 0.154297 
0.0371094 0.342773 0.699219 0.248047 0.663086 0.614258 0.21582 0.168945 0.958008 
0.40625 0.696289 0.425781 0.288086 0.137695 0.954102 0.833984 0.417969 0.353516 
0.647461 0.316406 0.21582 0.288086 0.893555 0.0537109 0.658203 0.323242 0.286133 
0.587891 0.194336 0.884766 0.485352 0.932617 0.104492 0.232422 0.387695 0.394531 
0.210938 0.84082 0.326172 0.248047 0.680664 0.15918 0.74707 0.271484 0.200195 
0.0791016 0.510742 0.459961 0.299805 0.831055 0.0673828 0.692383 0.889648 0.286133 
0.708984 0.285156 0.551758 0.09375 0.0791016 0.764648 0.388672 0.765625 0.943359 
0.261719 0.222656 0.577148 0.15332 0.771484 0.34082 0.333008 0.305664 0.852539 
0.259766 0.647461 0.349609 0.135742 0.188477 0.150391 0.584961 0.145508 0.195312 
0.228516 0.137695 0.704102 0.212891 0.12793 0.00976562 0.0546875 0.574219 0.694336 
0.349609 0.650391 0.137695 0.289062 0.236328 0.508789 0.227539 0.613281 0.532227 
0.378906 0.0751953 0.364258 0.59375 0.958984 0.325195 0.603516 0.224609 0.371094 
0.0205078 0.142578 0.282227 0.920898 0.646484 0.94043 0.470703 0.492188 0.489258 
0.473633 0.337891 0.259766 0.336914 0.426758 0.294922 0.172852 0.456055 0.416992 
0.333984 0.707031 0.583984 0.828125 0.850586 0.225586 0.229492 0.487305 0.518555 
0.0898438 0.0351562 0.0537109 0.963867 0.513672 0.271484 0.986328 0.952148 0.446289 
0.481445 0.18457 0.325195 0.623047 0.552734 0.375 0.767578 0.495117 0.128906 
0.685547 0.678711 0.554688 0.503906 0.808594 0.957031 0.705078 0.162109 0.249023 
0.166016 0.235352 0.901367 0.137695 0.805664 0.575195 0.935547 0.369141 0.140625 
0.0927734 0.234375 0.00585938 0.0947266 0.983398 0.75 0.333008 0.0634766 0.464844 
0.759766 0.735352 0.608398 0.0878906 0.65625 0.916992 0.829102 0.538086 0.760742 
0.709961 0.515625 0.96875 0.0869141 0.227539 0.454102 0.0986328 0.857422 0.625 
0.548828 0.158203 0.108398 0.3125 0.626953 0.523438 0.365234 0.0947266 0.707031 
0.291992 0.119141 0.382812 0.643555 0.774414 0.839844 0 0.607422 0.0654297 
0.682617 0.839844 0.0585938 0.766602 0.592773 0.508789 0.972656 0.84375 0.21582 
0.256836 0.267578 0.368164 0.321289 0.629883 0.645508 0.385742 0.248047 0.229492 
0.970703 0.03125 0.254883 0.271484 0.550781 0.792969 0.657227 0.431641 0.856445 
0.688477 0.119141 0.749023 0.500977 0.101562 0.532227 0.951172 0.926758 0.462891 
0.0878906 0.305664 0.754883 0.642578 0.109375 0.49707 0.84375 0.873047 0.401367 
0.110352 0.207031 0.239258 0.37793 0.985352 0.00976562 0.97168 0.439453 0.866211 
0.462891 0.760742 0.669922 0.947266 0.989258 0.0664062 0.397461 0.536133 0.268555 
0.165039 0.15332 0.514648 0.662109 0.5 0.482422 0.611328 0.236328 0.220703 
0.480469 0.998047 0.849609 0.655273 0.453125 0.443359 0.451172 0.851562 0.703125 
0.598633 0.34668 0.768555 0.951172 0.214844 0.300781 0.305664 0.605469 0.863281 
0.398438 0.154297 0.418945 0.0810547 0.492188 0.394531 0.839844 0.289062 0.313477 
0.935547 0.224609 0.62207 0.933594 0.865234 0.0947266 0.458008 0.638672 0.301758 
0.205078 0.777344 0.27832 0.386719 0.634766 0.993164 0.724609 0.785156 0.757812 
0.475586 0.866211 0.908203 0.487305 0.444336 0.979492 0.936523 0.242188 0.694336 
0.892578 0.691406 0.0410156 0.84668 0.131836 0.574219 0.708008 0.808594 0.859375 
0.425781 0.985352 0.389648 0.946289 0.786133 0.280273 0.65918 0.910156 0.5 
0.886719 0.833008 0.0214844 0.621094 0.374023 0.599609 0.658203 0.00878906 0.517578 
0.216797 0.907227 0.251953 0.0664062 0.453125 0.599609 0.459961 0.219727 0.175781 
0.456055 0.392578 0.102539 0.806641 0.400391 0.0380859 0.197266 0.77832 0.890625 
0.181641 0.191406 0.608398 0.00488281 0.461914 0.640625 0.556641 0.49707 0.724609 
0.69043 0.404297 0.472656 0.829102 0.845703 0.0244141 0.785156 0.4375 0.00195312 
0.896484 0.422852 0.720703 0.797852 0.879883 0.753906 0.46582 0.605469 0.385742 
0.360352 0.517578 0.266602 0.641602 0.699219 0.436523 0.117188 0.327148 0.678711 
0.897461 0.44043 0.521484 0.638672 0.722656 0.641602 0.931641 0.15332 0.237305 
0.189453 0.238281 0.920898 0.741211 0.800781 0.556641 0.628906 0.485352 0.742188 
0.0205078 0.0839844 0.0820312 0.0898438 0.520508 0.956055 0.857422 0.0810547 0.0234375 
0.263672 0.427734 0.982422 0.113281 0.889648 0.298828 0.394531 0.358398 0.821289 
0.166992 0.212891 0.421875 0.483398 0.204102 0.378906 0.117188 0.772461 0.748047 
0.658203 0.689453 0.817383 0.46875 0.473633 0.393555 0.948242 0.405273 0.19043 
0.0195312 0.197266 0.761719 0.046875 0.223633 0.604492 0.738281 0.603516 0.606445 
0.635742 0.275391 0.964844 0.680664 0.391602 0.792969 0.261719 0.160156 0.887695 
0.00683594 0.0703125 0.402344 0.898438 0.24707 0.492188 0.763672 0.808594 0.672852 
0.178711 0.491211 0.510742 0.0664062 0.958008 0.896484 0.921875 0.0654297 0.566406 
0.283203 0.399414 0.766602 0.539062 0.0341797 0.44043 0.350586 0.943359 0.194336 
0.72168 0.0683594 0.395508 0.728516 0.500977 0.338867 0.0898438 0.384766 0.536133 
0.889648 0.912109 0.0488281 0.90918 0.530273 0.361328 0.0947266 0.605469 0.0888672 
0.0556641 0.271484 0.0195312 0.0195312 0.46875 0.788086 0.936523 0.743164 0.28418 
0.202148 0.137695 0.669922 0.932617 0.233398 0.564453 0.925781 0.629883 0.826172 
0.250977 0.189453 0.245117 0.217773 0.144531 0.0605469 0.862305 0.911133 0.475586 
0.460938 0.541992 0.800781 0.326172 0.569336 0.352539 0.481445 0.508789 0.390625 
0.421875 0.998047 0.478516 0.882812 0.960938 0.926758 0.625977 0.303711 0.830078 
0.679688 0.226562 0.71582 0.286133 0.168945 0.0498047 0.926758 0.587891 0.0380859 
0.550781 0.515625 0.776367 0.469727 0.0898438 0.480469 0.583008 0.827148 0.257812 
0.606445 0.577148 0.536133 0.287109 0.129883 0.212891 0.370117 0.585938 0.775391 
0.486328 0.404297 0.487305 0.382812 0.25 0.0126953 0.259766 0.929688 0.128906 
0.0498047 0.457031 0.879883 0.87793 0.452148 0.561523 0.364258 0.953125 0.500977 
0.254883 0.262695 0.623047 0.341797 0.504883 0.239258 0.359375 0.27832 0.986328 
0.269531 0.0078125 0.983398 0.264648 0.828125 0.128906 0.735352 0.93457 0.634766 
0.975586 0.314453 0.0234375 0.0976562 0.367188 0.691406 0.426758 0.378906 0.191406 
0.625977 0.806641 0.506836 0.833984 0.547852 0.631836 0.822266 0.170898 0.928711 
0.68457 0.407227 0.834961 0.260742 0.890625 0.207031 0.461914 0.169922 0.108398 
0.541992 0.03125 0.165039 0.90332 0.696289 0.984375 0.928711 0.0185547 0.21582 
0.525391 0.179688 0.660156 0.666016 0.0800781 0.365234 0.208008 0.867188 0.901367 
0.291992 0.943359 0.865234 0.335938 0.0976562 0.381836 0.743164 0.577148 0.841797 
0.112305 0.769531 0.787109 0.407227 0.303711 0.375977 0.140625 0.271484 0.0771484 
0.173828 0.84375 0.371094 0.768555 0.242188 0.0283203 0.889648 0.366211 0.470703 
0.59668 0.430664 0.0810547 0.571289 0.866211 0.650391 0.459961 0.304688 0.444336 
0.109375 0.759766 0.174805 0.768555 0.832031 0.366211 0.358398 0.148438 0.662109 
0.810547 0.819336 0.336914 0.84082 0.4375 0.617188 0.533203 0.289062 0.125977 
0.664062 0.788086 0.224609 0.257812 0.422852 0.879883 0.210938 0.259766 0.928711 
0.613281 0.800781 0.130859 0.0449219 0.508789 0.439453 0.0576172 0.944336 0.635742 
0.132812 0.823242 0.102539 0.09375 0.15332 0.308594 0.243164 0.663086 0.882812 
0.189453 0.314453 0.579102 0.581055 0.822266 0.416016 0.294922 0.638672 0.301758 
0.984375 0.297852 0.0732422 0.0175781 0.624023 0.93457 0.211914 0.770508 0.325195 
0.682617 0.978516 0.751953 0.163086 0.21582 0.459961 0.342773 0.895508 0.0351562 
0.782227 0.0839844 0.745117 0.803711 0.527344 0.418945 0.700195 0.125 0.100586 
0.760742 0.133789 0.768555 0.9375 0.0332031 0.240234 0.114258 0.816406 0.260742 
0.72168 0.938477 0.750977 0.358398 0.280273 0.609375 0.591797 0.514648 0.0585938 
0.834961 0.119141 0.160156 0.789062 0.152344 0.84082 0.0224609 0.885742 0.449219 
0.591797 0.385742 0.84082 0.786133 0.12793 0.326172 0.200195 0.732422 0.404297 
0.355469 0.421875 0.594727 0.646484 0.708008 0.573242 0.469727 0.311523 0.549805 
0.532227 0.788086 0.303711 0.0527344 0.547852 0.163086 0.225586 0.185547 0.173828 
0.504883 0.0527344 0.398438 0.182617 0.652344 0.850586 0.304688 0.0136719 0.666992 
0.0839844 0.589844 0.368164 0.333984 0.59668 0.0869141 0.0849609 0.932617 0.860352 
0.224609 0.34375 0.46875 0.00683594 0.25 0.477539 0.0195312 0.939453 0.788086 
0.883789 0.120117 0.988281 0.276367 0.0839844 0.585938 0.798828 0.493164 0.640625 
0.0830078 0.619141 0.0244141 0.936523 0.527344 0.376953 0.970703 0.0263672 0.0810547 
0.779297 0.192383 0.0400391 0.859375 0.326172 0.542969 0.520508 0.945312 0.905273 
0.451172 0.714844 0.639648 0.996094 0.185547 0.832031 0.698242 0.130859 0.273438 
0.865234 0.541992 0.831055 0.742188 0.788086 0.441406 0.371094 0.462891 0.875977 
0.441406 0.729492 0.600586 0.0849609 0.927734 0.873047 0.669922 0.225586 0.561523 
0.116211 0.742188 0.575195 0.249023 0.0839844 0.416992 0.629883 0.837891 0.244141 
0.295898 0.0644531 0.911133 0.491211 0.609375 0.992188 0.935547 0.191406 0.407227 
0.43457 0.697266 0.31543 0.698242 0.602539 0.416016 0.631836 0.415039 0.401367 